(written by ASE)

8 	 atoms
1  atom types
0.0                102.3776  xlo xhi
0.0                102.3776  ylo yhi
0.0                102.3776  zlo zhi


Atoms

1   1   1   0.0      95.312198712105427      101.90022755746558      51.275147333198177
2   1   1   0.0      94.253815562832074      101.04353040772033      47.658302278206179
3   1   1   0.0      90.287074780117507      99.146064597837224      47.363437099502846
4   1   1   0.0      94.050375504674236      97.536283795648473       45.60905541029863
5   2   1   0.0      96.989638179080117       49.52463522107228      30.054862714858366
6   2   1   0.0      93.882592406649167      53.014302870651676      32.588925816534989
7   2   1   0.0      92.623171790686612      49.869755980935572      36.362287886934432
8   2   1   0.0       96.80635622293363      47.660225526197003       38.84723587427024

